 Entering Gaussian System, Link 0=g16
 Initial command:
 /software/gaussian/g16-c01/avx/g16/l1.exe "/local_scratch/17532146/Gau-5454.inp" -scrdir="/local_scratch/17532146/"
 Entering Link 1 = /software/gaussian/g16-c01/avx/g16/l1.exe PID=      5455.
  
 Copyright (c) 1988-2019, Gaussian, Inc.  All Rights Reserved.
  
 This is part of the Gaussian(R) 16 program.  It is based on
 the Gaussian(R) 09 system (copyright 2009, Gaussian, Inc.),
 the Gaussian(R) 03 system (copyright 2003, Gaussian, Inc.),
 the Gaussian(R) 98 system (copyright 1998, Gaussian, Inc.),
 the Gaussian(R) 94 system (copyright 1995, Gaussian, Inc.),
 the Gaussian 92(TM) system (copyright 1992, Gaussian, Inc.),
 the Gaussian 90(TM) system (copyright 1990, Gaussian, Inc.),
 the Gaussian 88(TM) system (copyright 1988, Gaussian, Inc.),
 the Gaussian 86(TM) system (copyright 1986, Carnegie Mellon
 University), and the Gaussian 82(TM) system (copyright 1983,
 Carnegie Mellon University). Gaussian is a federally registered
 trademark of Gaussian, Inc.
  
 This software contains proprietary and confidential information,
 including trade secrets, belonging to Gaussian, Inc.
  
 This software is provided under written license and may be
 used, copied, transmitted, or stored only in accord with that
 written license.
  
 The following legend is applicable only to US Government
 contracts under FAR:
  
                    RESTRICTED RIGHTS LEGEND
  
 Use, reproduction and disclosure by the US Government is
 subject to restrictions as set forth in subparagraphs (a)
 and (c) of the Commercial Computer Software - Restricted
 Rights clause in FAR 52.227-19.
  
 Gaussian, Inc.
 340 Quinnipiac St., Bldg. 40, Wallingford CT 06492
  
  
 ---------------------------------------------------------------
 Warning -- This program may not be used in any manner that
 competes with the business of Gaussian, Inc. or will provide
 assistance to any competitor of Gaussian, Inc.  The licensee
 of this program is prohibited from giving any competitor of
 Gaussian, Inc. access to this program.  By using this program,
 the user acknowledges that Gaussian, Inc. is engaged in the
 business of creating and licensing software in the field of
 computational chemistry and represents and warrants to the
 licensee that it is not a competitor of Gaussian, Inc. and that
 it will not use this program in any manner prohibited above.
 ---------------------------------------------------------------
  

 Cite this work as:
 Gaussian 16, Revision C.01,
 M. J. Frisch, G. W. Trucks, H. B. Schlegel, G. E. Scuseria, 
 M. A. Robb, J. R. Cheeseman, G. Scalmani, V. Barone, 
 G. A. Petersson, H. Nakatsuji, X. Li, M. Caricato, A. V. Marenich, 
 J. Bloino, B. G. Janesko, R. Gomperts, B. Mennucci, H. P. Hratchian, 
 J. V. Ortiz, A. F. Izmaylov, J. L. Sonnenberg, D. Williams-Young, 
 F. Ding, F. Lipparini, F. Egidi, J. Goings, B. Peng, A. Petrone, 
 T. Henderson, D. Ranasinghe, V. G. Zakrzewski, J. Gao, N. Rega, 
 G. Zheng, W. Liang, M. Hada, M. Ehara, K. Toyota, R. Fukuda, 
 J. Hasegawa, M. Ishida, T. Nakajima, Y. Honda, O. Kitao, H. Nakai, 
 T. Vreven, K. Throssell, J. A. Montgomery, Jr., J. E. Peralta, 
 F. Ogliaro, M. J. Bearpark, J. J. Heyd, E. N. Brothers, K. N. Kudin, 
 V. N. Staroverov, T. A. Keith, R. Kobayashi, J. Normand, 
 K. Raghavachari, A. P. Rendell, J. C. Burant, S. S. Iyengar, 
 J. Tomasi, M. Cossi, J. M. Millam, M. Klene, C. Adamo, R. Cammi, 
 J. W. Ochterski, R. L. Martin, K. Morokuma, O. Farkas, 
 J. B. Foresman, and D. J. Fox, Gaussian, Inc., Wallingford CT, 2019.
 
 ******************************************
 Gaussian 16:  ES64L-G16RevC.01  3-Jul-2019
                22-Jun-2023 
 ******************************************
 %mem=1GB
 %nprocshared=12
 Will use up to   12 processors via shared memory.
 ------------------
 # CCSD/aug-cc-pVQZ
 ------------------
 1/38=1,172=1/1;
 2/12=2,17=6,18=5,40=1/2;
 3/5=16,6=2,7=10,11=9,25=1,30=1/1,2,3;
 4//1;
 5/5=2,38=5/2;
 8/6=4,9=120000,10=1/1,4;
 9/5=7/13;
 6/7=2,8=2,9=2,10=2/1;
 99/5=1,9=1/99;
 --
 He
 --
 Symbolic Z-matrix:
 Charge =  0 Multiplicity = 1
 H                     0.        0.        0. 
 H                     0.79      0.        0. 
 
                          Input orientation:                          
 ---------------------------------------------------------------------
 Center     Atomic      Atomic             Coordinates (Angstroms)
 Number     Number       Type             X           Y           Z
 ---------------------------------------------------------------------
      1          1           0        0.000000    0.000000    0.000000
      2          1           0        0.790000    0.000000    0.000000
 ---------------------------------------------------------------------
 Stoichiometry    H2
 Framework group  D*H[C*(H.H)]
 Deg. of freedom     1
 Full point group                 D*H     NOp   8
 Largest Abelian subgroup         D2H     NOp   8
 Largest concise Abelian subgroup C2      NOp   2
                         Standard orientation:                         
 ---------------------------------------------------------------------
 Center     Atomic      Atomic             Coordinates (Angstroms)
 Number     Number       Type             X           Y           Z
 ---------------------------------------------------------------------
      1          1           0        0.000000    0.000000    0.395000
      2          1           0        0.000000    0.000000   -0.395000
 ---------------------------------------------------------------------
 Rotational constants (GHZ):           0.0000000        1606.9703716        1606.9703716
 Standard basis: Aug-CC-pVQZ (5D, 7F)
 There are    24 symmetry adapted cartesian basis functions of AG  symmetry.
 There are     5 symmetry adapted cartesian basis functions of B1G symmetry.
 There are    13 symmetry adapted cartesian basis functions of B2G symmetry.
 There are    13 symmetry adapted cartesian basis functions of B3G symmetry.
 There are     5 symmetry adapted cartesian basis functions of AU  symmetry.
 There are    24 symmetry adapted cartesian basis functions of B1U symmetry.
 There are    13 symmetry adapted cartesian basis functions of B2U symmetry.
 There are    13 symmetry adapted cartesian basis functions of B3U symmetry.
 There are    19 symmetry adapted basis functions of AG  symmetry.
 There are     5 symmetry adapted basis functions of B1G symmetry.
 There are    11 symmetry adapted basis functions of B2G symmetry.
 There are    11 symmetry adapted basis functions of B3G symmetry.
 There are     5 symmetry adapted basis functions of AU  symmetry.
 There are    19 symmetry adapted basis functions of B1U symmetry.
 There are    11 symmetry adapted basis functions of B2U symmetry.
 There are    11 symmetry adapted basis functions of B3U symmetry.
    92 basis functions,   114 primitive gaussians,   110 cartesian basis functions
     1 alpha electrons        1 beta electrons
       nuclear repulsion energy         0.6698445708 Hartrees.
 NAtoms=    2 NActive=    2 NUniq=    1 SFac= 4.00D+00 NAtFMM=   60 NAOKFM=F Big=F
 Integral buffers will be    131072 words long.
 Raffenetti 1 integral format.
 Two-electron integral symmetry is turned on.
 One-electron integrals computed using PRISM.
 NBasis=    92 RedAO= T EigKep=  5.05D-05  NBF=    19     5    11    11     5    19    11    11
 NBsUse=    92 1.00D-06 EigRej= -1.00D+00 NBFU=    19     5    11    11     5    19    11    11
 ExpMin= 2.36D-02 ExpMax= 8.26D+01 ExpMxC= 8.26D+01 IAcc=3 IRadAn=         5 AccDes= 0.00D+00
 Harris functional with IExCor=  205 and IRadAn=       5 diagonalized for initial guess.
 HarFok:  IExCor=  205 AccDes= 0.00D+00 IRadAn=         5 IDoV= 1 UseB2=F ITyADJ=14
 ICtDFT=  3500011 ScaDFX=  1.000000  1.000000  1.000000  1.000000
 FoFCou: FMM=F IPFlag=           0 FMFlag=      100000 FMFlg1=           0
         NFxFlg=           0 DoJE=T BraDBF=F KetDBF=T FulRan=T
         wScrn=  0.000000 ICntrl=       500 IOpCl=  0 I1Cent=   200000004 NGrid=           0
         NMat0=    1 NMatS0=      1 NMatT0=    0 NMatD0=    1 NMtDS0=    0 NMtDT0=    0
 Petite list used in FoFCou.
 Initial guess orbital symmetries:
       Occupied  (SGG)
       Virtual   (SGU) (SGG) (PIU) (PIU) (SGU) (SGG) (PIG) (PIG)
                 (SGG) (SGU) (DLTG) (DLTG) (PIU) (PIU) (SGU) (PIG)
                 (PIG) (SGG) (DLTU) (DLTU) (PIU) (PIU) (SGU) (SGG)
                 (PIG) (PIG) (PHIU) (PHIU) (SGU) (SGG) (SGU) (PIG)
                 (PIG) (DLTU) (DLTU) (DLTG) (DLTG) (PIU) (PIU)
                 (SGG) (PHIG) (PHIG) (PIU) (PIU) (DLTG) (DLTG)
                 (SGU) (SGG) (PIG) (PIG) (PIU) (PIU) (SGU) (DLTU)
                 (DLTU) (SGU) (SGG) (PIG) (PIG) (SGG) (PHIU) (PHIU)
                 (DLTG) (DLTG) (PIU) (PIU) (PHIG) (PHIG) (SGG)
                 (PIG) (PIG) (SGU) (DLTU) (DLTU) (DLTG) (DLTG)
                 (PIU) (PIU) (SGU) (PIU) (PIU) (SGG) (PIG) (PIG)
                 (DLTU) (DLTU) (SGU) (PIG) (PIG) (SGG) (SGU)
 The electronic state of the initial guess is 1-SGG.
 Keep R1 ints in memory in symmetry-blocked form, NReq=15008962.
 Requested convergence on RMS density matrix=1.00D-08 within 128 cycles.
 Requested convergence on MAX density matrix=1.00D-06.
 Requested convergence on             energy=1.00D-06.
 No special actions if energy rises.
 SCF Done:  E(RHF) =  -1.13149078509     A.U. after    6 cycles
            NFock=  6  Conv=0.59D-08     -V/T= 2.0501
 Range of M.O.s used for correlation:     1    92
 NBasis=    92 NAE=     1 NBE=     1 NFC=     0 NFV=     0
 NROrb=     92 NOA=     1 NOB=     1 NVA=    91 NVB=    91

 **** Warning!!: The largest alpha MO coefficient is  0.57453093D+02

 Semi-Direct transformation.
 ModeAB=           4 MOrb=             1 LenV=     133839043
 LASXX=        49960 LTotXX=       49960 LenRXX=      102232
 LTotAB=       52272 MaxLAS=      310408 LenRXY=           0
 NonZer=      152192 LenScr=      785920 LnRSAI=      310408
 LnScr1=      930816 LExtra=           0 Total=      2129376
 MaxDsk=          -1 SrtSym=           T ITran=            4
 JobTyp=0 Pass  1:  I=   1 to   1.
 (rs|ai) integrals will be sorted in core.
 Spin components of T(2) and E(2):
     alpha-alpha T2 =       0.0000000000D+00 E2=      0.0000000000D+00
     alpha-beta  T2 =       0.1104907409D-01 E2=     -0.3345703076D-01
     beta-beta   T2 =       0.0000000000D+00 E2=      0.0000000000D+00
 ANorm=    0.1005509361D+01
 E2 =    -0.3345703076D-01 EUMP2 =    -0.11649478158500D+01
 Keep R2 and R3 ints in memory in symmetry-blocked form, NReq=15011882.
 CIDS: In Core Option IDoMem=           1.
 Iterations=  50 Convergence= 0.100D-06
 Produce multiple copies of IABC intergrals
 Iteration Nr.   1
 **********************
 DD1Dir will call FoFMem   1 times, MxPair=         2
 NAB=     1 NAA=     0 NBB=     0.
 MP4(R+Q)=  0.36966921D-03
 E3=       -0.52220356D-02        EUMP3=      -0.11701698515D+01
 E4(DQ)=   -0.15172222D-02        UMP4(DQ)=   -0.11716870736D+01
 E4(SDQ)=  -0.16033491D-02        UMP4(SDQ)=  -0.11717732006D+01
 DE(Corr)= -0.38306789E-01 E(Corr)=     -1.1697975737    
 NORM(A)=   0.10086366D+01
 Iteration Nr.   2
 **********************
 DD1Dir will call FoFMem   1 times, MxPair=         2
 NAB=     1 NAA=     0 NBB=     0.
 DE(Corr)= -0.40355102E-01 E(CORR)=     -1.1718458866     Delta=-2.05D-03
 NORM(A)=   0.10098515D+01
 Iteration Nr.   3
 **********************
 DD1Dir will call FoFMem   1 times, MxPair=         2
 NAB=     1 NAA=     0 NBB=     0.
 DE(Corr)= -0.40944809E-01 E(CORR)=     -1.1724355943     Delta=-5.90D-04
 NORM(A)=   0.10099573D+01
 Iteration Nr.   4
 **********************
 DD1Dir will call FoFMem   1 times, MxPair=         2
 NAB=     1 NAA=     0 NBB=     0.
 DE(Corr)= -0.40999877E-01 E(CORR)=     -1.1724906620     Delta=-5.51D-05
 NORM(A)=   0.10099724D+01
 Iteration Nr.   5
 **********************
 DD1Dir will call FoFMem   1 times, MxPair=         2
 NAB=     1 NAA=     0 NBB=     0.
 DE(Corr)= -0.41004169E-01 E(CORR)=     -1.1724949546     Delta=-4.29D-06
 NORM(A)=   0.10099720D+01
 Iteration Nr.   6
 **********************
 DD1Dir will call FoFMem   1 times, MxPair=         2
 NAB=     1 NAA=     0 NBB=     0.
 DE(Corr)= -0.41004010E-01 E(CORR)=     -1.1724947951     Delta= 1.60D-07
 NORM(A)=   0.10099719D+01
 Iteration Nr.   7
 **********************
 DD1Dir will call FoFMem   1 times, MxPair=         2
 NAB=     1 NAA=     0 NBB=     0.
 DE(Corr)= -0.41003977E-01 E(CORR)=     -1.1724947617     Delta= 3.33D-08
 NORM(A)=   0.10099718D+01
 Wavefunction amplitudes converged. E(Corr)=     -1.1724947617    
 Largest amplitude= 3.68D-02
 Discarding MO integrals.

 **********************************************************************

            Population analysis using the SCF Density.

 **********************************************************************

 Orbital symmetries:
       Occupied  (SGG)
       Virtual   (SGU) (SGG) (SGU) (PIU) (PIU) (SGG) (PIG) (PIG)
                 (SGG) (SGU) (DLTG) (DLTG) (SGU) (PIG) (PIG) (SGG)
                 (PIU) (PIU) (DLTU) (DLTU) (PIU) (PIU) (SGU) (SGG)
                 (PIG) (PIG) (PHIU) (PHIU) (SGU) (SGG) (PIG) (PIG)
                 (SGU) (DLTU) (DLTU) (PIU) (PIU) (DLTG) (DLTG)
                 (PHIG) (PHIG) (SGG) (SGU) (PIU) (PIU) (DLTG) (DLTG)
                 (SGG) (PIG) (PIG) (PIU) (PIU) (SGU) (DLTU) (DLTU)
                 (SGU) (SGG) (PIG) (PIG) (SGG) (PHIU) (PHIU) (DLTG)
                 (DLTG) (PIU) (PIU) (PHIG) (PHIG) (SGG) (PIG) (PIG)
                 (DLTU) (DLTU) (SGU) (DLTG) (DLTG) (PIU) (PIU)
                 (SGU) (SGG) (PIU) (PIU) (PIG) (PIG) (DLTU) (DLTU)
                 (SGU) (PIG) (PIG) (SGG) (SGU)
 The electronic state is 1-SGG.
 Alpha  occ. eigenvalues --   -0.57992
 Alpha virt. eigenvalues --    0.04685   0.04765   0.15639   0.17266   0.17266
 Alpha virt. eigenvalues --    0.22891   0.23300   0.23300   0.32887   0.35413
 Alpha virt. eigenvalues --    0.59932   0.59932   0.61155   0.65957   0.65957
 Alpha virt. eigenvalues --    0.68609   0.69895   0.69895   0.71304   0.71304
 Alpha virt. eigenvalues --    0.73948   0.73948   0.80357   1.11970   1.43272
 Alpha virt. eigenvalues --    1.43272   1.51213   1.51213   1.58815   1.71049
 Alpha virt. eigenvalues --    1.79338   1.79338   1.79941   1.80518   1.80518
 Alpha virt. eigenvalues --    1.82642   1.82642   1.84531   1.84531   1.86715
 Alpha virt. eigenvalues --    1.86715   1.90656   2.33239   2.35667   2.35667
 Alpha virt. eigenvalues --    2.39217   2.39217   2.74460   3.08094   3.08094
 Alpha virt. eigenvalues --    3.44477   3.44477   3.45779   3.60684   3.60684
 Alpha virt. eigenvalues --    4.19431   4.25001   4.41931   4.41931   6.20220
 Alpha virt. eigenvalues --    6.26215   6.26215   6.46910   6.46910   7.09782
 Alpha virt. eigenvalues --    7.09782   7.09880   7.09880   7.66601   7.76235
 Alpha virt. eigenvalues --    7.76235   7.85587   7.85587   7.85878   8.40390
 Alpha virt. eigenvalues --    8.40390   8.43049   8.43049   8.53531   8.89264
 Alpha virt. eigenvalues --    8.91213   8.91213   9.06277   9.06277   9.51271
 Alpha virt. eigenvalues --    9.51271  10.57202  12.30744  12.30744  12.57951
 Alpha virt. eigenvalues --   16.16818
          Condensed to atoms (all electrons):
               1          2
     1  H    0.583031   0.416969
     2  H    0.416969   0.583031
 Mulliken charges:
               1
     1  H    0.000000
     2  H    0.000000
 Sum of Mulliken charges =   0.00000
 Mulliken charges with hydrogens summed into heavy atoms:
               1
 Electronic spatial extent (au):  <R**2>=              5.4031
 Charge=              0.0000 electrons
 Dipole moment (field-independent basis, Debye):
    X=              0.0000    Y=             -0.0000    Z=              0.0000  Tot=              0.0000
 Quadrupole moment (field-independent basis, Debye-Ang):
   XX=             -2.1710   YY=             -2.1710   ZZ=             -1.4264
   XY=             -0.0000   XZ=             -0.0000   YZ=              0.0000
 Traceless Quadrupole moment (field-independent basis, Debye-Ang):
   XX=             -0.2482   YY=             -0.2482   ZZ=              0.4964
   XY=             -0.0000   XZ=             -0.0000   YZ=              0.0000
 Octapole moment (field-independent basis, Debye-Ang**2):
  XXX=             -0.0000  YYY=              0.0000  ZZZ=              0.0000  XYY=             -0.0000
  XXY=             -0.0000  XXZ=             -0.0000  XZZ=             -0.0000  YZZ=              0.0000
  YYZ=             -0.0000  XYZ=              0.0000
 Hexadecapole moment (field-independent basis, Debye-Ang**3):
 XXXX=             -2.2429 YYYY=             -2.2429 ZZZZ=             -2.9693 XXXY=             -0.0000
 XXXZ=              0.0000 YYYX=             -0.0000 YYYZ=              0.0000 ZZZX=              0.0000
 ZZZY=              0.0000 XXYY=             -0.7476 XXZZ=             -0.8924 YYZZ=             -0.8924
 XXYZ=              0.0000 YYXZ=              0.0000 ZZXY=             -0.0000
 N-N= 6.698445707848D-01 E-N=-3.520318601253D+00  KE= 1.077484011209D+00
 Symmetry AG   KE= 1.077484011209D+00
 Symmetry B1G  KE=-2.835346400840D-53
 Symmetry B2G  KE= 9.518632109442D-31
 Symmetry B3G  KE= 9.518632109443D-31
 Symmetry AU   KE= 3.204252325671D-54
 Symmetry B1U  KE= 2.261861534197D-20
 Symmetry B2U  KE= 3.334829684237D-33
 Symmetry B3U  KE= 3.334829684237D-33
 Unable to Open any file for archive entry.
 1\1\GINC-BHP0001\SP\RCCSD-FC\Aug-CC-pVQZ\H2\BWEIGHT\22-Jun-2023\0\\# C
 CSD/aug-cc-pVQZ\\He\\0,1\H,0,0.,0.,0.\H,0,0.79,0.,0.\\Version=ES64L-G1
 6RevC.01\State=1-SGG\HF=-1.1314908\MP2=-1.1649478\MP3=-1.1701699\MP4D=
 -1.1720567\MP4DQ=-1.1716871\MP4SDQ=-1.1717732\CCSD=-1.1724948\RMSD=5.9
 42e-09\PG=D*H [C*(H1.H1)]\\@
 The archive entry for this job was punched.


 IN-LAWS ARE LIKE SEEDS. YOU DON'T NEED THEM
 BUT THEY COME WITH THE TOMATO.
 Job cpu time:       0 days  0 hours  1 minutes 23.5 seconds.
 Elapsed time:       0 days  0 hours  0 minutes  7.8 seconds.
 File lengths (MBytes):  RWF=     24 Int=      0 D2E=      0 Chk=      2 Scr=      1
 Normal termination of Gaussian 16 at Thu Jun 22 15:38:16 2023.
