 Entering Gaussian System, Link 0=g16
 Initial command:
 /software/gaussian/g16-c01/avx/g16/l1.exe "/local_scratch/17431399/Gau-11342.inp" -scrdir="/local_scratch/17431399/"
 Entering Link 1 = /software/gaussian/g16-c01/avx/g16/l1.exe PID=     11343.
  
 Copyright (c) 1988-2019, Gaussian, Inc.  All Rights Reserved.
  
 This is part of the Gaussian(R) 16 program.  It is based on
 the Gaussian(R) 09 system (copyright 2009, Gaussian, Inc.),
 the Gaussian(R) 03 system (copyright 2003, Gaussian, Inc.),
 the Gaussian(R) 98 system (copyright 1998, Gaussian, Inc.),
 the Gaussian(R) 94 system (copyright 1995, Gaussian, Inc.),
 the Gaussian 92(TM) system (copyright 1992, Gaussian, Inc.),
 the Gaussian 90(TM) system (copyright 1990, Gaussian, Inc.),
 the Gaussian 88(TM) system (copyright 1988, Gaussian, Inc.),
 the Gaussian 86(TM) system (copyright 1986, Carnegie Mellon
 University), and the Gaussian 82(TM) system (copyright 1983,
 Carnegie Mellon University). Gaussian is a federally registered
 trademark of Gaussian, Inc.
  
 This software contains proprietary and confidential information,
 including trade secrets, belonging to Gaussian, Inc.
  
 This software is provided under written license and may be
 used, copied, transmitted, or stored only in accord with that
 written license.
  
 The following legend is applicable only to US Government
 contracts under FAR:
  
                    RESTRICTED RIGHTS LEGEND
  
 Use, reproduction and disclosure by the US Government is
 subject to restrictions as set forth in subparagraphs (a)
 and (c) of the Commercial Computer Software - Restricted
 Rights clause in FAR 52.227-19.
  
 Gaussian, Inc.
 340 Quinnipiac St., Bldg. 40, Wallingford CT 06492
  
  
 ---------------------------------------------------------------
 Warning -- This program may not be used in any manner that
 competes with the business of Gaussian, Inc. or will provide
 assistance to any competitor of Gaussian, Inc.  The licensee
 of this program is prohibited from giving any competitor of
 Gaussian, Inc. access to this program.  By using this program,
 the user acknowledges that Gaussian, Inc. is engaged in the
 business of creating and licensing software in the field of
 computational chemistry and represents and warrants to the
 licensee that it is not a competitor of Gaussian, Inc. and that
 it will not use this program in any manner prohibited above.
 ---------------------------------------------------------------
  

 Cite this work as:
 Gaussian 16, Revision C.01,
 M. J. Frisch, G. W. Trucks, H. B. Schlegel, G. E. Scuseria, 
 M. A. Robb, J. R. Cheeseman, G. Scalmani, V. Barone, 
 G. A. Petersson, H. Nakatsuji, X. Li, M. Caricato, A. V. Marenich, 
 J. Bloino, B. G. Janesko, R. Gomperts, B. Mennucci, H. P. Hratchian, 
 J. V. Ortiz, A. F. Izmaylov, J. L. Sonnenberg, D. Williams-Young, 
 F. Ding, F. Lipparini, F. Egidi, J. Goings, B. Peng, A. Petrone, 
 T. Henderson, D. Ranasinghe, V. G. Zakrzewski, J. Gao, N. Rega, 
 G. Zheng, W. Liang, M. Hada, M. Ehara, K. Toyota, R. Fukuda, 
 J. Hasegawa, M. Ishida, T. Nakajima, Y. Honda, O. Kitao, H. Nakai, 
 T. Vreven, K. Throssell, J. A. Montgomery, Jr., J. E. Peralta, 
 F. Ogliaro, M. J. Bearpark, J. J. Heyd, E. N. Brothers, K. N. Kudin, 
 V. N. Staroverov, T. A. Keith, R. Kobayashi, J. Normand, 
 K. Raghavachari, A. P. Rendell, J. C. Burant, S. S. Iyengar, 
 J. Tomasi, M. Cossi, J. M. Millam, M. Klene, C. Adamo, R. Cammi, 
 J. W. Ochterski, R. L. Martin, K. Morokuma, O. Farkas, 
 J. B. Foresman, and D. J. Fox, Gaussian, Inc., Wallingford CT, 2019.
 
 ******************************************
 Gaussian 16:  ES64L-G16RevC.01  3-Jul-2019
                19-Jun-2023 
 ******************************************
 %mem=1GB
 %nprocshared=12
 Will use up to   12 processors via shared memory.
 ------------------
 # CCSD/aug-cc-pVDZ
 ------------------
 1/38=1,172=1/1;
 2/12=2,17=6,18=5,40=1/2;
 3/5=16,7=10,11=9,25=1,30=1/1,2,3;
 4//1;
 5/5=2,38=5/2;
 8/6=4,9=120000,10=1/1,4;
 9/5=7/13;
 6/7=2,8=2,9=2,10=2/1;
 99/5=1,9=1/99;
 -------
 TitleMe
 -------
 Symbolic Z-matrix:
 Charge =  0 Multiplicity = 1
 Li                    0.        0.        0. 
 H                     0.        0.        1.65 
 
                          Input orientation:                          
 ---------------------------------------------------------------------
 Center     Atomic      Atomic             Coordinates (Angstroms)
 Number     Number       Type             X           Y           Z
 ---------------------------------------------------------------------
      1          3           0        0.000000    0.000000    0.000000
      2          1           0        0.000000    0.000000    1.650000
 ---------------------------------------------------------------------
 Stoichiometry    HLi
 Framework group  C*V[C*(HLi)]
 Deg. of freedom     1
 Full point group                 C*V     NOp   4
 Largest Abelian subgroup         C2V     NOp   4
 Largest concise Abelian subgroup C1      NOp   1
                         Standard orientation:                         
 ---------------------------------------------------------------------
 Center     Atomic      Atomic             Coordinates (Angstroms)
 Number     Number       Type             X           Y           Z
 ---------------------------------------------------------------------
      1          3           0        0.000000    0.000000    0.412500
      2          1           0        0.000000    0.000000   -1.237500
 ---------------------------------------------------------------------
 Rotational constants (GHZ):           0.0000000         210.6473514         210.6473514
 Standard basis: Aug-CC-pVDZ (5D, 7F)
 There are    18 symmetry adapted cartesian basis functions of A1  symmetry.
 There are     2 symmetry adapted cartesian basis functions of A2  symmetry.
 There are     7 symmetry adapted cartesian basis functions of B1  symmetry.
 There are     7 symmetry adapted cartesian basis functions of B2  symmetry.
 There are    16 symmetry adapted basis functions of A1  symmetry.
 There are     2 symmetry adapted basis functions of A2  symmetry.
 There are     7 symmetry adapted basis functions of B1  symmetry.
 There are     7 symmetry adapted basis functions of B2  symmetry.
    32 basis functions,    53 primitive gaussians,    34 cartesian basis functions
     2 alpha electrons        2 beta electrons
       nuclear repulsion energy         0.9621403835 Hartrees.
 NAtoms=    2 NActive=    2 NUniq=    2 SFac= 1.00D+00 NAtFMM=   60 NAOKFM=F Big=F
 Integral buffers will be    131072 words long.
 Raffenetti 1 integral format.
 Two-electron integral symmetry is turned on.
 One-electron integrals computed using PRISM.
 NBasis=    32 RedAO= T EigKep=  4.41D-03  NBF=    16     2     7     7
 NBsUse=    32 1.00D-06 EigRej= -1.00D+00 NBFU=    16     2     7     7
 ExpMin= 5.63D-03 ExpMax= 1.47D+03 ExpMxC= 5.03D+01 IAcc=3 IRadAn=         5 AccDes= 0.00D+00
 Harris functional with IExCor=  205 and IRadAn=       5 diagonalized for initial guess.
 HarFok:  IExCor=  205 AccDes= 0.00D+00 IRadAn=         5 IDoV= 1 UseB2=F ITyADJ=14
 ICtDFT=  3500011 ScaDFX=  1.000000  1.000000  1.000000  1.000000
 FoFCou: FMM=F IPFlag=           0 FMFlag=      100000 FMFlg1=           0
         NFxFlg=           0 DoJE=T BraDBF=F KetDBF=T FulRan=T
         wScrn=  0.000000 ICntrl=       500 IOpCl=  0 I1Cent=   200000004 NGrid=           0
         NMat0=    1 NMatS0=      1 NMatT0=    0 NMatD0=    1 NMtDS0=    0 NMtDT0=    0
 Petite list used in FoFCou.
 Initial guess orbital symmetries:
       Occupied  (SG) (SG)
       Virtual   (SG) (PI) (PI) (SG) (SG) (PI) (PI) (SG) (SG) (PI)
                 (PI) (PI) (PI) (SG) (DLTA) (DLTA) (SG) (SG) (PI)
                 (PI) (SG) (PI) (PI) (DLTA) (DLTA) (SG) (SG) (PI)
                 (PI) (SG)
 The electronic state of the initial guess is 1-SG.
 Keep R1 ints in memory in symmetry-blocked form, NReq=2618847.
 Requested convergence on RMS density matrix=1.00D-08 within 128 cycles.
 Requested convergence on MAX density matrix=1.00D-06.
 Requested convergence on             energy=1.00D-06.
 No special actions if energy rises.
 SCF Done:  E(RHF) =  -7.98413561180     A.U. after    9 cycles
            NFock=  9  Conv=0.81D-08     -V/T= 2.0066
 ExpMin= 5.63D-03 ExpMax= 1.47D+03 ExpMxC= 5.03D+01 IAcc=3 IRadAn=         5 AccDes= 0.00D+00
 HarFok:  IExCor=  205 AccDes= 0.00D+00 IRadAn=         5 IDoV=-2 UseB2=F ITyADJ=14
 ICtDFT= 12500011 ScaDFX=  1.000000  1.000000  1.000000  1.000000
 Range of M.O.s used for correlation:     2    32
 NBasis=    32 NAE=     2 NBE=     2 NFC=     1 NFV=     0
 NROrb=     31 NOA=     1 NOB=     1 NVA=    30 NVB=    30
 Semi-Direct transformation.
 ModeAB=           2 MOrb=             1 LenV=     134024547
 LASXX=         3896 LTotXX=        3896 LenRXX=        3896
 LTotAB=        4495 MaxLAS=       18445 LenRXY=       18445
 NonZer=       19840 LenScr=      785920 LnRSAI=           0
 LnScr1=           0 LExtra=           0 Total=       808261
 MaxDsk=          -1 SrtSym=           F ITran=            4
 JobTyp=0 Pass  1:  I=   1 to   1.
 (rs|ai) integrals will be sorted in core.
 Spin components of T(2) and E(2):
     alpha-alpha T2 =       0.0000000000D+00 E2=      0.0000000000D+00
     alpha-beta  T2 =       0.1451206555D-01 E2=     -0.2432072247D-01
     beta-beta   T2 =       0.0000000000D+00 E2=      0.0000000000D+00
 ANorm=    0.1007229897D+01
 E2 =    -0.2432072247D-01 EUMP2 =    -0.80084563342703D+01
 Keep R2 and R3 ints in memory in symmetry-blocked form, NReq=2621357.
 CIDS: In Core Option IDoMem=           1.
 Iterations=  50 Convergence= 0.100D-06
 Produce multiple copies of IABC intergrals
 Iteration Nr.   1
 **********************
 DD1Dir will call FoFMem   1 times, MxPair=         2
 NAB=     1 NAA=     0 NBB=     0.
 MP4(R+Q)=  0.35294392D-03
 E3=       -0.65657988D-02        EUMP3=      -0.80150221331D+01
 E4(DQ)=   -0.18584184D-02        UMP4(DQ)=   -0.80168805515D+01
 E4(SDQ)=  -0.19200763D-02        UMP4(SDQ)=  -0.80169422094D+01
 DE(Corr)= -0.30531945E-01 E(Corr)=     -8.0146675564    
 NORM(A)=   0.10138310D+01
 Iteration Nr.   2
 **********************
 DD1Dir will call FoFMem   1 times, MxPair=         2
 NAB=     1 NAA=     0 NBB=     0.
 DE(Corr)= -0.33148365E-01 E(CORR)=     -8.0172839768     Delta=-2.62D-03
 NORM(A)=   0.10150826D+01
 Iteration Nr.   3
 **********************
 DD1Dir will call FoFMem   1 times, MxPair=         2
 NAB=     1 NAA=     0 NBB=     0.
 DE(Corr)= -0.33523370E-01 E(CORR)=     -8.0176589823     Delta=-3.75D-04
 NORM(A)=   0.10154572D+01
 Iteration Nr.   4
 **********************
 DD1Dir will call FoFMem   1 times, MxPair=         2
 NAB=     1 NAA=     0 NBB=     0.
 DE(Corr)= -0.33604993E-01 E(CORR)=     -8.0177406046     Delta=-8.16D-05
 NORM(A)=   0.10157338D+01
 Iteration Nr.   5
 **********************
 DD1Dir will call FoFMem   1 times, MxPair=         2
 NAB=     1 NAA=     0 NBB=     0.
 DE(Corr)= -0.33630928E-01 E(CORR)=     -8.0177665401     Delta=-2.59D-05
 NORM(A)=   0.10157756D+01
 Iteration Nr.   6
 **********************
 DD1Dir will call FoFMem   1 times, MxPair=         2
 NAB=     1 NAA=     0 NBB=     0.
 DE(Corr)= -0.33630378E-01 E(CORR)=     -8.0177659899     Delta= 5.50D-07
 NORM(A)=   0.10157838D+01
 Iteration Nr.   7
 **********************
 DD1Dir will call FoFMem   1 times, MxPair=         2
 NAB=     1 NAA=     0 NBB=     0.
 DE(Corr)= -0.33630814E-01 E(CORR)=     -8.0177664258     Delta=-4.36D-07
 NORM(A)=   0.10157858D+01
 Iteration Nr.   8
 **********************
 DD1Dir will call FoFMem   1 times, MxPair=         2
 NAB=     1 NAA=     0 NBB=     0.
 DE(Corr)= -0.33630847E-01 E(CORR)=     -8.0177664585     Delta=-3.27D-08
 NORM(A)=   0.10157858D+01
 Iteration Nr.   9
 **********************
 DD1Dir will call FoFMem   1 times, MxPair=         2
 NAB=     1 NAA=     0 NBB=     0.
 DE(Corr)= -0.33631017E-01 E(CORR)=     -8.0177666292     Delta=-1.71D-07
 NORM(A)=   0.10157859D+01
 Iteration Nr.  10
 **********************
 DD1Dir will call FoFMem   1 times, MxPair=         2
 NAB=     1 NAA=     0 NBB=     0.
 DE(Corr)= -0.33631079E-01 E(CORR)=     -8.0177666908     Delta=-6.16D-08
 NORM(A)=   0.10157860D+01
 Wavefunction amplitudes converged. E(Corr)=     -8.0177666908    
 Largest amplitude= 4.68D-02
 Discarding MO integrals.

 **********************************************************************

            Population analysis using the SCF Density.

 **********************************************************************

 Orbital symmetries:
       Occupied  (SG) (SG)
       Virtual   (SG) (PI) (PI) (SG) (SG) (PI) (PI) (SG) (SG) (SG)
                 (PI) (PI) (DLTA) (DLTA) (PI) (PI) (SG) (SG) (PI)
                 (PI) (DLTA) (DLTA) (SG) (PI) (PI) (SG) (SG) (SG)
                 (PI) (PI)
 The electronic state is 1-SG.
 Alpha  occ. eigenvalues --   -2.45799  -0.29827
 Alpha virt. eigenvalues --   -0.00833   0.01201   0.01201   0.01870   0.03111
 Alpha virt. eigenvalues --    0.05045   0.05045   0.08089   0.14353   0.17861
 Alpha virt. eigenvalues --    0.18525   0.18525   0.19518   0.19518   0.19944
 Alpha virt. eigenvalues --    0.19944   0.23691   0.42109   0.52552   0.52552
 Alpha virt. eigenvalues --    0.55555   0.55555   0.56068   0.56384   0.56384
 Alpha virt. eigenvalues --    0.96809   1.53407   2.03135   2.03372   2.03372
          Condensed to atoms (all electrons):
               1          2
     1  Li   2.391194   0.437934
     2  H    0.437934   0.732937
 Mulliken charges:
               1
     1  Li   0.170872
     2  H   -0.170872
 Sum of Mulliken charges =  -0.00000
 Mulliken charges with hydrogens summed into heavy atoms:
               1
     1  Li  -0.000000
 Electronic spatial extent (au):  <R**2>=             20.9599
 Charge=             -0.0000 electrons
 Dipole moment (field-independent basis, Debye):
    X=              0.0000    Y=              0.0000    Z=              6.1504  Tot=              6.1504
 Quadrupole moment (field-independent basis, Debye-Ang):
   XX=             -5.4998   YY=             -5.4998   ZZ=             -7.3847
   XY=              0.0000   XZ=              0.0000   YZ=              0.0000
 Traceless Quadrupole moment (field-independent basis, Debye-Ang):
   XX=              0.6283   YY=              0.6283   ZZ=             -1.2566
   XY=              0.0000   XZ=              0.0000   YZ=              0.0000
 Octapole moment (field-independent basis, Debye-Ang**2):
  XXX=              0.0000  YYY=              0.0000  ZZZ=             15.2040  XYY=              0.0000
  XXY=              0.0000  XXZ=              4.5369  XZZ=              0.0000  YZZ=              0.0000
  YYZ=              4.5369  XYZ=              0.0000
 Hexadecapole moment (field-independent basis, Debye-Ang**3):
 XXXX=            -12.7944 YYYY=            -12.7944 ZZZZ=            -38.7184 XXXY=              0.0000
 XXXZ=              0.0000 YYYX=              0.0000 YYYZ=              0.0000 ZZZX=              0.0000
 ZZZY=              0.0000 XXYY=             -4.2648 XXZZ=             -8.4605 YYZZ=             -8.4605
 XXYZ=              0.0000 YYXZ=              0.0000 ZZXY=              0.0000
 N-N= 9.621403834909D-01 E-N=-2.031210050205D+01  KE= 7.932077082433D+00
 Symmetry A1   KE= 7.932077082433D+00
 Symmetry A2   KE= 9.808006893434D-52
 Symmetry B1   KE= 0.000000000000D+00
 Symmetry B2   KE= 0.000000000000D+00
 Unable to Open any file for archive entry.
 1\1\GINC-BHG0001\SP\RCCSD-FC\Aug-CC-pVDZ\H1Li1\BWEIGHT\19-Jun-2023\0\\
 # CCSD/aug-cc-pVDZ\\TitleMe\\0,1\Li,0,0.,0.,0.\H,0,0.,0.,1.65\\Version
 =ES64L-G16RevC.01\State=1-SG\HF=-7.9841356\MP2=-8.0084563\MP3=-8.01502
 21\MP4D=-8.0172335\MP4DQ=-8.0168806\MP4SDQ=-8.0169422\CCSD=-8.0177667\
 RMSD=8.074e-09\PG=C*V [C*(H1Li1)]\\@
 The archive entry for this job was punched.


 I am not a vegetarian because I love animals;
 I am a vegetarian because I hate plants.
                               -- A. Whitney Brown
 Job cpu time:       0 days  0 hours  1 minutes 34.8 seconds.
 Elapsed time:       0 days  0 hours  1 minutes 34.7 seconds.
 File lengths (MBytes):  RWF=     13 Int=      0 D2E=      0 Chk=      1 Scr=      1
 Normal termination of Gaussian 16 at Mon Jun 19 20:37:23 2023.
