 Entering Gaussian System, Link 0=g16
 Initial command:
 /software/gaussian/g16-c01/avx/g16/l1.exe "/local_scratch/17541196/Gau-13703.inp" -scrdir="/local_scratch/17541196/"
 Entering Link 1 = /software/gaussian/g16-c01/avx/g16/l1.exe PID=     13704.
  
 Copyright (c) 1988-2019, Gaussian, Inc.  All Rights Reserved.
  
 This is part of the Gaussian(R) 16 program.  It is based on
 the Gaussian(R) 09 system (copyright 2009, Gaussian, Inc.),
 the Gaussian(R) 03 system (copyright 2003, Gaussian, Inc.),
 the Gaussian(R) 98 system (copyright 1998, Gaussian, Inc.),
 the Gaussian(R) 94 system (copyright 1995, Gaussian, Inc.),
 the Gaussian 92(TM) system (copyright 1992, Gaussian, Inc.),
 the Gaussian 90(TM) system (copyright 1990, Gaussian, Inc.),
 the Gaussian 88(TM) system (copyright 1988, Gaussian, Inc.),
 the Gaussian 86(TM) system (copyright 1986, Carnegie Mellon
 University), and the Gaussian 82(TM) system (copyright 1983,
 Carnegie Mellon University). Gaussian is a federally registered
 trademark of Gaussian, Inc.
  
 This software contains proprietary and confidential information,
 including trade secrets, belonging to Gaussian, Inc.
  
 This software is provided under written license and may be
 used, copied, transmitted, or stored only in accord with that
 written license.
  
 The following legend is applicable only to US Government
 contracts under FAR:
  
                    RESTRICTED RIGHTS LEGEND
  
 Use, reproduction and disclosure by the US Government is
 subject to restrictions as set forth in subparagraphs (a)
 and (c) of the Commercial Computer Software - Restricted
 Rights clause in FAR 52.227-19.
  
 Gaussian, Inc.
 340 Quinnipiac St., Bldg. 40, Wallingford CT 06492
  
  
 ---------------------------------------------------------------
 Warning -- This program may not be used in any manner that
 competes with the business of Gaussian, Inc. or will provide
 assistance to any competitor of Gaussian, Inc.  The licensee
 of this program is prohibited from giving any competitor of
 Gaussian, Inc. access to this program.  By using this program,
 the user acknowledges that Gaussian, Inc. is engaged in the
 business of creating and licensing software in the field of
 computational chemistry and represents and warrants to the
 licensee that it is not a competitor of Gaussian, Inc. and that
 it will not use this program in any manner prohibited above.
 ---------------------------------------------------------------
  

 Cite this work as:
 Gaussian 16, Revision C.01,
 M. J. Frisch, G. W. Trucks, H. B. Schlegel, G. E. Scuseria, 
 M. A. Robb, J. R. Cheeseman, G. Scalmani, V. Barone, 
 G. A. Petersson, H. Nakatsuji, X. Li, M. Caricato, A. V. Marenich, 
 J. Bloino, B. G. Janesko, R. Gomperts, B. Mennucci, H. P. Hratchian, 
 J. V. Ortiz, A. F. Izmaylov, J. L. Sonnenberg, D. Williams-Young, 
 F. Ding, F. Lipparini, F. Egidi, J. Goings, B. Peng, A. Petrone, 
 T. Henderson, D. Ranasinghe, V. G. Zakrzewski, J. Gao, N. Rega, 
 G. Zheng, W. Liang, M. Hada, M. Ehara, K. Toyota, R. Fukuda, 
 J. Hasegawa, M. Ishida, T. Nakajima, Y. Honda, O. Kitao, H. Nakai, 
 T. Vreven, K. Throssell, J. A. Montgomery, Jr., J. E. Peralta, 
 F. Ogliaro, M. J. Bearpark, J. J. Heyd, E. N. Brothers, K. N. Kudin, 
 V. N. Staroverov, T. A. Keith, R. Kobayashi, J. Normand, 
 K. Raghavachari, A. P. Rendell, J. C. Burant, S. S. Iyengar, 
 J. Tomasi, M. Cossi, J. M. Millam, M. Klene, C. Adamo, R. Cammi, 
 J. W. Ochterski, R. L. Martin, K. Morokuma, O. Farkas, 
 J. B. Foresman, and D. J. Fox, Gaussian, Inc., Wallingford CT, 2019.
 
 ******************************************
 Gaussian 16:  ES64L-G16RevC.01  3-Jul-2019
                22-Jun-2023 
 ******************************************
 %mem=1GB
 %nprocshared=12
 Will use up to   12 processors via shared memory.
 --------------------
 # wB97XD/aug-cc-pVQZ
 --------------------
 1/38=1,172=1/1;
 2/12=2,17=6,18=5,40=1/2;
 3/5=16,6=2,7=10,11=2,25=1,30=1,74=-58/1,2,3;
 4//1;
 5/5=2,38=5/2;
 6/7=2,8=2,9=2,10=2,28=1/1;
 99/5=1,9=1/99;
 --
 He
 --
 Symbolic Z-matrix:
 Charge =  0 Multiplicity = 1
 H                     0.        0.        0. 
 H                     0.79      0.        0. 
 
                          Input orientation:                          
 ---------------------------------------------------------------------
 Center     Atomic      Atomic             Coordinates (Angstroms)
 Number     Number       Type             X           Y           Z
 ---------------------------------------------------------------------
      1          1           0        0.000000    0.000000    0.000000
      2          1           0        0.790000    0.000000    0.000000
 ---------------------------------------------------------------------
 Stoichiometry    H2
 Framework group  D*H[C*(H.H)]
 Deg. of freedom     1
 Full point group                 D*H     NOp   8
 Largest Abelian subgroup         D2H     NOp   8
 Largest concise Abelian subgroup C2      NOp   2
                         Standard orientation:                         
 ---------------------------------------------------------------------
 Center     Atomic      Atomic             Coordinates (Angstroms)
 Number     Number       Type             X           Y           Z
 ---------------------------------------------------------------------
      1          1           0        0.000000    0.000000    0.395000
      2          1           0        0.000000    0.000000   -0.395000
 ---------------------------------------------------------------------
 Rotational constants (GHZ):           0.0000000        1606.9703716        1606.9703716
 Standard basis: Aug-CC-pVQZ (5D, 7F)
 There are    24 symmetry adapted cartesian basis functions of AG  symmetry.
 There are     5 symmetry adapted cartesian basis functions of B1G symmetry.
 There are    13 symmetry adapted cartesian basis functions of B2G symmetry.
 There are    13 symmetry adapted cartesian basis functions of B3G symmetry.
 There are     5 symmetry adapted cartesian basis functions of AU  symmetry.
 There are    24 symmetry adapted cartesian basis functions of B1U symmetry.
 There are    13 symmetry adapted cartesian basis functions of B2U symmetry.
 There are    13 symmetry adapted cartesian basis functions of B3U symmetry.
 There are    19 symmetry adapted basis functions of AG  symmetry.
 There are     5 symmetry adapted basis functions of B1G symmetry.
 There are    11 symmetry adapted basis functions of B2G symmetry.
 There are    11 symmetry adapted basis functions of B3G symmetry.
 There are     5 symmetry adapted basis functions of AU  symmetry.
 There are    19 symmetry adapted basis functions of B1U symmetry.
 There are    11 symmetry adapted basis functions of B2U symmetry.
 There are    11 symmetry adapted basis functions of B3U symmetry.
    92 basis functions,   114 primitive gaussians,   110 cartesian basis functions
     1 alpha electrons        1 beta electrons
       nuclear repulsion energy         0.6698445708 Hartrees.
 NAtoms=    2 NActive=    2 NUniq=    1 SFac= 4.00D+00 NAtFMM=   60 NAOKFM=F Big=F
 Integral buffers will be    131072 words long.
 Raffenetti 2 integral format.
 Two-electron integral symmetry is turned on.
 Nuclear repulsion after empirical dispersion term =        0.6698440496 Hartrees.
 One-electron integrals computed using PRISM.
 NBasis=    92 RedAO= T EigKep=  5.05D-05  NBF=    19     5    11    11     5    19    11    11
 NBsUse=    92 1.00D-06 EigRej= -1.00D+00 NBFU=    19     5    11    11     5    19    11    11
 ExpMin= 2.36D-02 ExpMax= 8.26D+01 ExpMxC= 8.26D+01 IAcc=3 IRadAn=         5 AccDes= 0.00D+00
 Harris functional with IExCor= 4639 and IRadAn=       5 diagonalized for initial guess.
 HarFok:  IExCor= 4639 AccDes= 0.00D+00 IRadAn=         5 IDoV= 1 UseB2=F ITyADJ=14
 ICtDFT=  3500011 ScaDFX=  1.000000  1.000000  1.000000  1.000000
 FoFCou: FMM=F IPFlag=           0 FMFlag=      100000 FMFlg1=           0
         NFxFlg=           0 DoJE=T BraDBF=F KetDBF=T FulRan=T
         wScrn=  0.000000 ICntrl=       500 IOpCl=  0 I1Cent=   200000004 NGrid=           0
         NMat0=    1 NMatS0=      1 NMatT0=    0 NMatD0=    1 NMtDS0=    0 NMtDT0=    0
 Petite list used in FoFCou.
 Initial guess orbital symmetries:
       Occupied  (SGG)
       Virtual   (SGU) (SGG) (SGU) (PIU) (PIU) (SGG) (PIG) (PIG)
                 (SGG) (SGU) (DLTG) (DLTG) (SGU) (PIU) (PIU) (PIG)
                 (PIG) (SGG) (DLTU) (DLTU) (PIU) (PIU) (SGU) (SGG)
                 (PIG) (PIG) (PHIU) (PHIU) (SGU) (SGG) (SGU) (DLTU)
                 (DLTU) (PIG) (PIG) (PIU) (PIU) (DLTG) (DLTG) (PHIG)
                 (PHIG) (SGG) (PIU) (PIU) (DLTG) (DLTG) (SGU) (SGG)
                 (PIG) (PIG) (PIU) (PIU) (SGU) (DLTU) (DLTU) (SGU)
                 (SGG) (PIG) (PIG) (SGG) (PHIU) (PHIU) (DLTG) (DLTG)
                 (PIU) (PIU) (PHIG) (PHIG) (SGG) (PIG) (PIG) (SGU)
                 (DLTU) (DLTU) (DLTG) (DLTG) (PIU) (PIU) (SGU)
                 (PIU) (PIU) (SGG) (PIG) (PIG) (DLTU) (DLTU) (SGU)
                 (PIG) (PIG) (SGG) (SGU)
 The electronic state of the initial guess is 1-SGG.
 Keep R1 ints in memory in symmetry-blocked form, NReq=29940652.
 Requested convergence on RMS density matrix=1.00D-08 within 128 cycles.
 Requested convergence on MAX density matrix=1.00D-06.
 Requested convergence on             energy=1.00D-06.
 No special actions if energy rises.
 SCF Done:  E(RwB97XD) =  -1.17575793684     A.U. after    6 cycles
            NFock=  6  Conv=0.18D-08     -V/T= 2.0714

 **********************************************************************

            Population analysis using the SCF Density.

 **********************************************************************

 Orbital symmetries:
       Occupied  (SGG)
       Virtual   (SGU) (SGG) (SGU) (PIU) (PIU) (SGG) (PIG) (PIG)
                 (SGG) (SGU) (DLTG) (DLTG) (SGU) (PIU) (PIU) (PIG)
                 (PIG) (SGG) (DLTU) (DLTU) (PIU) (PIU) (SGU) (SGG)
                 (PIG) (PIG) (PHIU) (PHIU) (SGU) (SGG) (SGU) (DLTU)
                 (DLTU) (PIG) (PIG) (PIU) (PIU) (DLTG) (DLTG) (SGG)
                 (PHIG) (PHIG) (PIU) (PIU) (DLTG) (DLTG) (SGU)
                 (SGG) (PIG) (PIG) (PIU) (PIU) (SGU) (DLTU) (DLTU)
                 (SGU) (SGG) (PIG) (PIG) (SGG) (PHIU) (PHIU) (DLTG)
                 (DLTG) (PIU) (PIU) (PHIG) (PHIG) (SGG) (PIG) (PIG)
                 (SGU) (DLTU) (DLTU) (DLTG) (DLTG) (PIU) (PIU)
                 (SGU) (PIU) (PIU) (SGG) (PIG) (PIG) (DLTU) (DLTU)
                 (SGU) (PIG) (PIG) (SGG) (SGU)
 The electronic state is 1-SGG.
 Alpha  occ. eigenvalues --   -0.50705
 Alpha virt. eigenvalues --    0.04856   0.05176   0.13813   0.16544   0.16544
 Alpha virt. eigenvalues --    0.23191   0.23735   0.23735   0.31636   0.32244
 Alpha virt. eigenvalues --    0.57540   0.57540   0.59367   0.62934   0.62934
 Alpha virt. eigenvalues --    0.64215   0.64215   0.65901   0.70820   0.70820
 Alpha virt. eigenvalues --    0.72682   0.72682   0.75913   1.04397   1.35724
 Alpha virt. eigenvalues --    1.35724   1.44880   1.44880   1.53028   1.62053
 Alpha virt. eigenvalues --    1.68318   1.75223   1.75223   1.75665   1.75665
 Alpha virt. eigenvalues --    1.76992   1.76992   1.77781   1.77781   1.82206
 Alpha virt. eigenvalues --    1.82277   1.82277   2.19881   2.19881   2.26372
 Alpha virt. eigenvalues --    2.26372   2.29073   2.59839   2.94977   2.94977
 Alpha virt. eigenvalues --    3.30753   3.30753   3.32089   3.47330   3.47330
 Alpha virt. eigenvalues --    3.98480   4.09079   4.26137   4.26137   5.94581
 Alpha virt. eigenvalues --    6.05681   6.05681   6.23227   6.23228   6.81402
 Alpha virt. eigenvalues --    6.81402   6.89633   6.89633   7.37205   7.56092
 Alpha virt. eigenvalues --    7.56092   7.64221   7.65517   7.65517   8.14803
 Alpha virt. eigenvalues --    8.14804   8.19362   8.19362   8.27661   8.63300
 Alpha virt. eigenvalues --    8.63300   8.64254   8.78185   8.78185   9.23661
 Alpha virt. eigenvalues --    9.23661  10.23282  12.01264  12.01264  12.23358
 Alpha virt. eigenvalues --   15.80879
          Condensed to atoms (all electrons):
               1          2
     1  H    0.575279   0.424721
     2  H    0.424721   0.575279
 Mulliken charges:
               1
     1  H    0.000000
     2  H    0.000000
 Sum of Mulliken charges =   0.00000
 Mulliken charges with hydrogens summed into heavy atoms:
               1
 Electronic spatial extent (au):  <R**2>=              5.4063
 Charge=              0.0000 electrons
 Dipole moment (field-independent basis, Debye):
    X=              0.0000    Y=              0.0000    Z=             -0.0000  Tot=              0.0000
 Quadrupole moment (field-independent basis, Debye-Ang):
   XX=             -2.1516   YY=             -2.1516   ZZ=             -1.4696
   XY=             -0.0000   XZ=             -0.0000   YZ=              0.0000
 Traceless Quadrupole moment (field-independent basis, Debye-Ang):
   XX=             -0.2274   YY=             -0.2274   ZZ=              0.4547
   XY=             -0.0000   XZ=             -0.0000   YZ=              0.0000
 Octapole moment (field-independent basis, Debye-Ang**2):
  XXX=             -0.0000  YYY=              0.0000  ZZZ=              0.0000  XYY=             -0.0000
  XXY=             -0.0000  XXZ=             -0.0000  XZZ=             -0.0000  YZZ=              0.0000
  YYZ=             -0.0000  XYZ=              0.0000
 Hexadecapole moment (field-independent basis, Debye-Ang**3):
 XXXX=             -2.2604 YYYY=             -2.2604 ZZZZ=             -3.0866 XXXY=             -0.0000
 XXXZ=              0.0000 YYYX=             -0.0000 YYYZ=              0.0000 ZZZX=              0.0000
 ZZZY=              0.0000 XXYY=             -0.7535 XXZZ=             -0.9132 YYZZ=             -0.9132
 XXYZ=              0.0000 YYXZ=              0.0000 ZZXY=             -0.0000
 N-N= 6.698440496411D-01 E-N=-3.541481540578D+00  KE= 1.097363106833D+00
 Symmetry AG   KE= 1.097363106833D+00
 Symmetry B1G  KE=-1.894199415802D-53
 Symmetry B2G  KE= 9.629000063905D-31
 Symmetry B3G  KE= 9.629000063907D-31
 Symmetry AU   KE=-6.625435915113D-54
 Symmetry B1U  KE=-2.431956247345D-21
 Symmetry B2U  KE= 3.443352544587D-33
 Symmetry B3U  KE= 3.443352544587D-33
 Unable to Open any file for archive entry.
 1\1\GINC-BHP0001\SP\RwB97XD\Aug-CC-pVQZ\H2\BWEIGHT\22-Jun-2023\0\\# wB
 97XD/aug-cc-pVQZ\\He\\0,1\H,0,0.,0.,0.\H,0,0.79,0.,0.\\Version=ES64L-G
 16RevC.01\State=1-SGG\HF=-1.1757579\RMSD=1.809e-09\Dipole=0.,0.,0.\Qua
 drupole=0.3380754,-0.1690377,-0.1690377,0.,0.,0.\PG=D*H [C*(H1.H1)]\\@
 The archive entry for this job was punched.


 TRUST EVERYONE, BUT CUT THE CARDS.
 Job cpu time:       0 days  0 hours  0 minutes 56.4 seconds.
 Elapsed time:       0 days  0 hours  0 minutes  5.3 seconds.
 File lengths (MBytes):  RWF=     10 Int=      0 D2E=      0 Chk=      2 Scr=      1
 Normal termination of Gaussian 16 at Thu Jun 22 16:58:07 2023.
